# vtk DataFile Version 1.0
Unstructured Grid Example
ASCII

DATASET UNSTRUCTURED_GRID
POINTS 339 float
0 0 1
0 0 0
0 1 1
0 1 0
1 0 1
1 0 0
1 1 1
1 1 0
0 0 0.166667
0 0 0.333333
0 0 0.5
0 0 0.666667
0 0 0.833333
0 0.166667 1
0 0.333333 1
0 0.5 1
0 0.666667 1
0 0.833333 1
0 1 0.166667
0 1 0.333333
0 1 0.5
0 1 0.666667
0 1 0.833333
0 0.166667 0
0 0.333333 0
0 0.5 0
0 0.666667 0
0 0.833333 0
1 0 0.166667
1 0 0.333333
1 0 0.5
1 0 0.666667
1 0 0.833333
1 0.166667 1
1 0.333333 1
1 0.5 1
1 0.666667 1
1 0.833333 1
1 1 0.166667
1 1 0.333333
1 1 0.5
1 1 0.666667
1 1 0.833333
1 0.166667 0
1 0.333333 0
1 0.5 0
1 0.666667 0
1 0.833333 0
0.166667 0 0
0.333333 0 0
0.5 0 0
0.666667 0 0
0.833333 0 0
0.166667 0 1
0.333333 0 1
0.5 0 1
0.666667 0 1
0.833333 0 1
0.166667 1 0
0.333333 1 0
0.5 1 0
0.666667 1 0
0.833333 1 0
0.166667 1 1
0.333333 1 1
0.5 1 1
0.666667 1 1
0.833333 1 1
0 0.583333 0.855662
0 0.581511 0.150843
0 0.149383 0.597788
0 0.850617 0.597788
0 0.13563 0.24588
0 0.861162 0.247706
0 0.250706 0.858871
0 0.749294 0.858871
0 0.692565 0.697529
0 0.504316 0.709026
0 0.583333 0.566987
0 0.42222 0.563813
0 0.500926 0.425064
0 0.666667 0.42265
0 0.340091 0.42137
0 0.440466 0.283571
0 0.308845 0.696747
0 0.168785 0.420391
0 0.413422 0.853384
0 0.831801 0.420921
0 0.861355 0.751496
0 0.138813 0.751403
0 0.752883 0.136949
0 0.241807 0.131307
0 0.405995 0.135163
0 0.582548 0.315372
0 0.283208 0.283319
0 0.712762 0.282407
0 0.720994 0.55024
0 0.277865 0.540022
0 0.877992 0.877992
0 0.122008 0.877992
0 0.877992 0.122008
0 0.12116 0.12116
1 0.597788 0.850617
1 0.597788 0.149383
1 0.150843 0.581511
1 0.855662 0.583333
1 0.151308 0.262374
1 0.858871 0.250706
1 0.247706 0.861162
1 0.858871 0.749294
1 0.697529 0.692565
1 0.709026 0.504316
1 0.566987 0.583333
1 0.563813 0.42222
1 0.425064 0.500926
1 0.421266 0.339911
1 0.42265 0.666667
1 0.272222 0.4199
1 0.420921 0.831801
1 0.855814 0.417504
1 0.422043 0.169175
1 0.696768 0.308965
1 0.751496 0.861355
1 0.751405 0.138827
1 0.136949 0.752883
1 0.255562 0.139278
1 0.313102 0.578434
1 0.114875 0.419424
1 0.30448 0.266128
1 0.282029 0.712076
1 0.55024 0.720994
1 0.540336 0.277931
1 0.877992 0.877992
1 0.122008 0.122008
1 0.122008 0.877992
1 0.877992 0.122008
0.855662 0 0.583333
0.150843 0 0.581511
0.597788 0 0.149383
0.597788 0 0.850617
0.24588 0 0.13563
0.247706 0 0.861162
0.858871 0 0.250706
0.858871 0 0.749294
0.697529 0 0.692565
0.709026 0 0.504316
0.566987 0 0.583333
0.563813 0 0.42222
0.425064 0 0.500926
0.42265 0 0.666667
0.42137 0 0.340091
0.283571 0 0.440466
0.696747 0 0.308845
0.853384 0 0.413422
0.420391 0 0.168785
0.420921 0 0.831801
0.751496 0 0.861355
0.751403 0 0.138813
0.136949 0 0.752883
0.131307 0 0.241807
0.135163 0 0.405995
0.315372 0 0.582548
0.283319 0 0.283208
0.282407 0 0.712762
0.55024 0 0.720994
0.540022 0 0.277865
0.877992 0 0.877992
0.877992 0 0.122008
0.122008 0 0.877992
0.12116 0 0.12116
0.855662 1 0.583333
0.150843 1 0.581511
0.597788 1 0.149383
0.597788 1 0.850617
0.151308 1 0.262374
0.247706 1 0.861162
0.858871 1 0.250706
0.858871 1 0.749294
0.697529 1 0.692565
0.709026 1 0.504316
0.566987 1 0.583333
0.563813 1 0.42222
0.425064 1 0.500926
0.421266 1 0.339911
0.42265 1 0.666667
0.272222 1 0.4199
0.696747 1 0.308845
0.853384 1 0.413422
0.422043 1 0.169175
0.420921 1 0.831801
0.751496 1 0.861355
0.751403 1 0.138813
0.136949 1 0.752883
0.255562 1 0.139278
0.313102 1 0.578434
0.114875 1 0.419424
0.30448 1 0.266128
0.282029 1 0.712076
0.55024 1 0.720994
0.540331 1 0.277907
0.877992 1 0.877992
0.122008 1 0.122008
0.877992 1 0.122008
0.122008 1 0.877992
0.597788 0.850617 0
0.597788 0.149383 0
0.150843 0.581511 0
0.855662 0.583333 0
0.151308 0.262374 0
0.858871 0.250706 0
0.247706 0.861162 0
0.858871 0.749294 0
0.697529 0.692565 0
0.709026 0.504316 0
0.566987 0.583333 0
0.563813 0.42222 0
0.425064 0.500926 0
0.421266 0.339911 0
0.42265 0.666667 0
0.272222 0.4199 0
0.420921 0.831801 0
0.855814 0.417504 0
0.422043 0.169175 0
0.696768 0.308965 0
0.751496 0.861355 0
0.751405 0.138827 0
0.136949 0.752883 0
0.255562 0.139278 0
0.313102 0.578434 0
0.114875 0.419424 0
0.30448 0.266128 0
0.282029 0.712076 0
0.55024 0.720994 0
0.540336 0.277931 0
0.877992 0.877992 0
0.122008 0.122008 0
0.122008 0.877992 0
0.877992 0.122008 0
0.597788 0.850617 1
0.597788 0.149383 1
0.150843 0.581511 1
0.855662 0.583333 1
0.151308 0.262374 1
0.858871 0.250706 1
0.247706 0.861162 1
0.858871 0.749294 1
0.697529 0.692565 1
0.709026 0.504316 1
0.566987 0.583333 1
0.563813 0.42222 1
0.425064 0.500926 1
0.421266 0.339911 1
0.42265 0.666667 1
0.272222 0.4199 1
0.855814 0.417504 1
0.420921 0.831801 1
0.422043 0.169175 1
0.696768 0.308965 1
0.751496 0.861355 1
0.136949 0.752883 1
0.751405 0.138827 1
0.255562 0.139278 1
0.313102 0.578434 1
0.114875 0.419424 1
0.30448 0.266128 1
0.282029 0.712076 1
0.55024 0.720994 1
0.540336 0.277931 1
0.877992 0.877992 1
0.122008 0.122008 1
0.122008 0.877992 1
0.877992 0.122008 1
0.5 0.5 0.5
0.362755 0.303207 0.697207
0.362755 0.697207 0.303207
0.362988 0.302837 0.302875
0.354458 0.695934 0.695934
0.697741 0.361225 0.305628
0.707408 0.341383 0.655444
0.678369 0.684496 0.315422
0.668186 0.687459 0.687459
0.246289 0.555987 0.487979
0.518337 0.238906 0.503704
0.514858 0.761352 0.497571
0.514858 0.497571 0.761352
0.513513 0.512012 0.232536
0.761629 0.536509 0.503346
0.230812 0.318952 0.499948
0.232277 0.499987 0.253288
0.551342 0.215929 0.215927
0.558898 0.220468 0.779792
0.230815 0.78826 0.518915
0.235423 0.497212 0.771785
0.528902 0.795935 0.203186
0.201212 0.797936 0.201212
0.783018 0.514812 0.783884
0.201409 0.200484 0.202548
0.797112 0.202926 0.797074
0.51711 0.798822 0.798822
0.798379 0.201259 0.201259
0.201339 0.201348 0.798277
0.792562 0.532331 0.20465
0.77928 0.219261 0.470927
0.199628 0.799555 0.800933
0.777959 0.777959 0.503574
0.802948 0.802948 0.802948
0.804084 0.804084 0.195916
0.343984 0.169267 0.506481
0.176706 0.665059 0.344425
0.356368 0.480026 0.62466
0.523444 0.36859 0.370362
0.645782 0.166539 0.621787
0.370234 0.421666 0.157988
0.177395 0.649885 0.639824
0.378355 0.523565 0.363385
0.193168 0.177717 0.614353
0.837834 0.390613 0.421186
0.200775 0.173549 0.387089
0.630002 0.516761 0.372978
0.630043 0.166177 0.375624
0.642618 0.380064 0.834283
0.517601 0.371848 0.628918
0.372153 0.841033 0.415668
0.388933 0.839711 0.596407
0.388933 0.596407 0.839711
0.384009 0.60252 0.157885
0.187631 0.350044 0.674697
0.664985 0.377235 0.483045
0.160344 0.353486 0.335106
0.630082 0.512306 0.623829
0.836843 0.625192 0.646394
0.378009 0.411283 0.840433
0.458746 0.167931 0.649358
0.597281 0.37562 0.164278
0.605578 0.64349 0.160679
0.395347 0.637383 0.534868
0.599534 0.837086 0.360949
0.392136 0.17305 0.812689
0.458635 0.168194 0.353734
CELLS 1125 5625
4 154 222 275 289 
4 217 230 275 312 
4 180 198 280 298 
4 248 266 280 298 
4 180 280 283 298 
4 248 280 284 298 
4 248 280 284 295 
4 272 287 309 321 
4 154 275 289 338 
4 180 280 283 304 
4 154 222 275 296 
4 196 274 293 322 
4 87 195 291 294 
4 217 275 289 312 
4 116 126 278 316 
4 126 129 278 302 
4 274 283 314 318 
4 217 222 230 275 
4 113 121 286 304 
4 272 287 310 314 
4 222 230 275 296 
4 276 298 303 323 
4 221 277 299 301 
4 276 298 303 324 
4 178 180 198 280 
4 246 248 266 280 
4 274 279 283 318 
4 220 274 294 325 
4 220 274 293 294 
4 92 229 288 296 
4 116 278 286 316 
4 220 274 293 325 
4 246 248 280 295 
4 128 277 301 316 
4 180 283 298 323 
4 223 277 299 333 
4 248 284 298 324 
4 121 279 286 304 
4 114 116 126 316 
4 178 180 280 304 
4 189 298 303 323 
4 217 222 275 289 
4 115 128 301 316 
4 129 278 297 302 
4 255 298 303 324 
4 183 196 293 322 
4 116 278 286 295 
4 87 291 294 308 
4 114 116 286 316 
4 154 275 296 338 
4 275 287 310 314 
4 86 263 292 300 
4 219 229 288 296 
4 185 195 291 294 
4 272 283 314 318 
4 221 223 277 299 
4 274 279 285 318 
4 188 220 293 294 
4 274 285 314 318 
4 178 198 280 298 
4 246 266 280 298 
4 113 121 131 301 
4 275 282 287 310 
4 116 129 278 295 
4 116 286 295 330 
4 129 278 295 297 
4 189 197 303 323 
4 104 126 129 302 
4 272 283 318 329 
4 255 265 303 324 
4 276 280 284 335 
4 283 286 318 329 
4 120 221 299 301 
4 92 288 296 328 
4 280 284 329 335 
4 206 288 294 325 
4 273 282 287 321 
4 104 129 297 302 
4 272 287 309 314 
4 220 231 294 325 
4 180 198 298 323 
4 248 266 298 324 
4 118 129 295 297 
4 115 120 128 301 
4 280 283 286 329 
4 183 188 196 293 
4 136 297 302 311 
4 69 288 294 308 
4 265 292 303 324 
4 279 283 286 318 
4 113 131 301 316 
4 253 263 292 300 
4 273 282 287 307 
4 189 255 298 303 
4 113 286 301 316 
4 275 282 287 307 
4 79 80 281 287 
4 79 281 313 326 
4 86 292 300 326 
4 219 288 296 312 
4 185 291 294 322 
4 116 118 129 295 
4 273 287 309 321 
4 196 274 294 322 
4 280 283 286 304 
4 206 231 294 325 
4 118 254 295 297 
4 104 136 297 302 
4 279 283 286 304 
4 78 79 281 313 
4 272 283 314 335 
4 69 206 288 294 
4 276 280 283 335 
4 193 210 220 294 
4 175 244 255 303 
4 121 279 304 306 
4 291 294 308 322 
4 80 281 287 328 
4 276 280 283 298 
4 274 279 293 334 
4 276 280 284 298 
4 274 279 283 336 
4 274 279 285 334 
4 68 292 303 313 
4 128 277 299 316 
4 254 295 297 320 
4 119 187 304 306 
4 186 304 306 336 
4 242 253 263 300 
4 174 185 195 294 
4 188 193 220 294 
4 178 280 304 305 
4 125 209 221 299 
4 230 275 296 312 
4 105 109 177 305 
4 116 126 129 278 
4 117 128 299 316 
4 208 219 229 296 
4 247 248 284 295 
4 274 279 293 336 
4 246 280 298 305 
4 178 280 298 305 
4 274 283 314 335 
4 69 90 226 294 
4 68 240 292 303 
4 186 187 304 306 
4 140 154 227 296 
4 246 280 295 305 
4 240 265 292 303 
4 154 162 296 338 
4 112 114 116 286 
4 107 176 187 306 
4 178 179 180 304 
4 108 243 254 297 
4 79 281 287 326 
4 119 121 304 306 
4 154 222 227 296 
4 120 125 221 299 
4 111 113 121 304 
4 126 278 302 316 
4 278 297 302 311 
4 105 170 304 305 
4 179 180 283 304 
4 240 262 265 324 
4 175 189 255 303 
4 79 80 82 287 
4 105 304 305 330 
4 276 283 298 323 
4 253 292 300 331 
4 280 283 329 335 
4 170 178 304 305 
4 276 284 298 324 
4 92 208 229 296 
4 120 125 128 299 
[...]
POINT_DATA 339
SCALARS scalars float
LOOKUP_TABLE default
1.23
1.23
1.23
1.23
1.23
1.23
1.23
1.23
1.23
1.23
1.23
1.23
1.23
1.23
1.23
1.23
1.23
1.23
1.23
1.23
1.23
1.23
1.23
1.23
1.23
1.23
1.23
1.23
1.23
1.23
1.23
1.23
1.23
1.23
1.23
1.23
1.23
1.23
1.23
1.23
1.23
1.23
1.23
1.23
1.23
1.23
1.23
1.23
1.23
1.23
1.23
1.23
1.23
1.23
1.23
1.23
1.23
1.23
1.23
1.23
1.23
1.23
1.23
1.23
1.23
1.23
1.23
1.23
1.23
1.23
1.23
1.23
1.23
1.23
1.23
1.23
1.23
1.23
1.23
1.23
1.23
1.23
1.23
1.23
1.23
1.23
1.23
1.23
1.23
1.23
1.23
1.23
1.23
1.23
1.23
1.23
1.23
1.23
1.23
1.23
1.23
1.23
1.23
1.23
1.23
1.23
1.23
1.23
1.23
1.23
1.23
1.23
1.23
1.23
1.23
1.23
1.23
1.23
1.23
1.23
1.23
1.23
1.23
1.23
1.23
1.23
1.23
1.23
1.23
1.23
1.23
1.23
1.23
1.23
1.23
1.23
1.23
1.23
1.23
1.23
1.23
1.23
1.23
1.23
1.23
1.23
1.23
1.23
1.23
1.23
1.23
1.23
1.23
1.23
1.23
1.23
1.23
1.23
1.23
1.23
1.23
1.23
1.23
1.23
1.23
1.23
1.23
1.23
1.23
1.23
1.23
1.23
1.23
1.23
1.23
1.23
1.23
1.23
1.23
1.23
1.23
1.23
1.23
1.23
1.23
1.23
1.23
1.23
1.23
1.23
1.23
1.23
1.23
1.23
1.23
1.23
1.23
1.23
1.23
1.23
1.23
1.23
1.23
1.23
1.23
1.23
1.23
1.23
1.23
1.23
1.23
1.23
1.23
1.23
1.23
1.23
1.23
1.23
1.23
1.23
1.23
1.23
1.23
1.23
1.23
1.23
1.23
1.23
1.23
1.23
1.23
1.23
1.23
1.23
1.23
1.23
1.23
1.23
1.23
1.23
1.23
1.23
1.23
1.23
1.23
1.23
1.23
1.23
1.23
1.23
1.23
1.23
1.23
1.23
1.23
1.23
1.23
1.23
1.23
1.23
1.23
1.23
1.23
1.23
1.23
1.23
1.23
1.23
1.23
1.23
1.23
1.23
1.23
1.23
1.23
1.23
1.23
1.23
1.23
1.23
1.23
1.23
1.23
1.23
1.23
1.23
1.23
1.23
1.23
1.23
1.23
1.23
1.23
1.23
1.23
1.23
1.23
1.23
1.23
1.23
1.23
1.23
1.23
1.23
1.23
1.23
1.23
1.23
1.23
1.23
1.23
1.23
1.23
1.23
1.23
1.23
1.23
1.23
1.23
1.23
1.23
1.23
1.23
1.23
1.23
1.23
1.23
1.23
1.23
1.23
1.23
1.23
1.23
1.23
1.23
1.23
1.23
1.23
1.23
