# vtk DataFile Version 1.0
Unstructured Grid Example
ASCII

DATASET UNSTRUCTURED_GRID
POINTS 1145 float
0 0 1
0 0 0
0 1 1
0 1 0
1 0 1
1 0 0
1 1 1
1 1 0
0 0 0.1
0 0 0.2
0 0 0.3
0 0 0.4
0 0 0.5
0 0 0.6
0 0 0.7
0 0 0.8
0 0 0.9
0 0.1 1
0 0.2 1
0 0.3 1
0 0.4 1
0 0.5 1
0 0.6 1
0 0.7 1
0 0.8 1
0 0.9 1
0 1 0.1
0 1 0.2
0 1 0.3
0 1 0.4
0 1 0.5
0 1 0.6
0 1 0.7
0 1 0.8
0 1 0.9
0 0.1 0
0 0.2 0
0 0.3 0
0 0.4 0
0 0.5 0
0 0.6 0
0 0.7 0
0 0.8 0
0 0.9 0
1 0 0.1
1 0 0.2
1 0 0.3
1 0 0.4
1 0 0.5
1 0 0.6
1 0 0.7
1 0 0.8
1 0 0.9
1 0.1 1
1 0.2 1
1 0.3 1
1 0.4 1
1 0.5 1
1 0.6 1
1 0.7 1
1 0.8 1
1 0.9 1
1 1 0.1
1 1 0.2
1 1 0.3
1 1 0.4
1 1 0.5
1 1 0.6
1 1 0.7
1 1 0.8
1 1 0.9
1 0.1 0
1 0.2 0
1 0.3 0
1 0.4 0
1 0.5 0
1 0.6 0
1 0.7 0
1 0.8 0
1 0.9 0
0.1 0 0
0.2 0 0
0.3 0 0
0.4 0 0
0.5 0 0
0.6 0 0
0.7 0 0
0.8 0 0
0.9 0 0
0.1 0 1
0.2 0 1
0.3 0 1
0.4 0 1
0.5 0 1
0.6 0 1
0.7 0 1
0.8 0 1
0.9 0 1
0.1 1 0
0.2 1 0
0.3 1 0
0.4 1 0
0.5 1 0
0.6 1 0
0.7 1 0
0.8 1 0
0.9 1 0
0.1 1 1
0.2 1 1
0.3 1 1
0.4 1 1
0.5 1 1
0.6 1 1
0.7 1 1
0.8 1 1
0.9 1 1
0 0.45316 0.0847783
0 0.0866025 0.55
0 0.539426 0.907632
0 0.913397 0.45
0 0.0866025 0.35
0 0.34908 0.911146
0 0.65 0.0866025
0 0.913397 0.65
0 0.0861307 0.749183
0 0.748262 0.923702
0 0.241327 0.0896296
0 0.920408 0.254021
0 0.0846772 0.150424
0 0.849407 0.0829497
0 0.159183 0.90943
0 0.904505 0.844556
0 0.0865239 0.649864
0 0.173192 0.599977
0 0.173203 0.499996
0 0.259805 0.549996
0 0.259807 0.449999
0 0.34641 0.499999
0 0.346886 0.599844
0 0.433275 0.549657
0 0.433056 0.449943
0 0.519666 0.499933
0 0.519615 0.4
0 0.51985 0.599615
0 0.606265 0.549925
0 0.605711 0.648963
0 0.43302 0.34999
0 0.516347 0.295533
0 0.605673 0.349255
0 0.519615 0.7
0 0.692744 0.599815
0 0.693046 0.697317
0 0.692816 0.499957
0 0.779423 0.55
0 0.429872 0.248383
0 0.345888 0.299729
0 0.601277 0.24646
0 0.69282 0.3
0 0.34641 0.2
0 0.261395 0.252855
0 0.779423 0.45
0 0.695247 0.189019
0 0.778437 0.251226
0 0.173111 0.699837
0 0.170302 0.800591
0 0.260058 0.750084
0 0.256973 0.850508
0 0.347837 0.803272
0 0.440531 0.852496
0 0.435241 0.75386
0 0.526219 0.799211
0 0.619611 0.837042
0 0.347323 0.70086
0 0.779423 0.65
0 0.779423 0.75
0 0.0862817 0.250071
0 0.913397 0.35
0 0.913397 0.55
0 0.918454 0.7459
0 0.347102 0.100582
0 0.0866022 0.449999
0 0.749109 0.086753
0 0.346331 0.399943
0 0.259972 0.350421
0 0.550527 0.0842259
0 0.51002 0.183201
0 0.259808 0.65
0 0.606143 0.449845
0 0.779423 0.35
0 0.173232 0.400069
0 0.173448 0.300569
0 0.692716 0.399843
0 0.181698 0.184961
0 0.4339 0.649395
0 0.0821275 0.846932
0 0.846566 0.922179
0 0.906146 0.155907
0 0.149128 0.0832464
0 0.608241 0.74519
0 0.65 0.923358
0 0.699133 0.788695
0 0.8 0.161947
0 0.78842 0.839225
0 0.600721 0.159306
0 0.84641 0.4
0 0.84641 0.3
0 0.253047 0.934217
0 0.84641 0.5
0 0.84641 0.6
0 0.84641 0.7
0 0.269856 0.167404
0 0.45 0.934744
0 0.417313 0.163389
0 0.926795 0.0732051
0 0.0732051 0.0732051
0 0.0732051 0.926795
0 0.926795 0.926795
0 0.694643 0.8646
0 0.847442 0.775936
0 0.85028 0.22462
1 0.45316 0.0847783
1 0.0866025 0.55
1 0.539426 0.907632
1 0.913397 0.45
1 0.0866025 0.35
1 0.34908 0.911146
1 0.65 0.0866025
1 0.913397 0.65
1 0.0861307 0.749183
1 0.748262 0.923702
1 0.241327 0.0896296
1 0.920408 0.254021
1 0.0846772 0.150424
1 0.849407 0.0829497
1 0.159183 0.90943
1 0.904505 0.844556
1 0.0865239 0.649864
1 0.173192 0.599977
1 0.173203 0.499996
1 0.259805 0.549996
1 0.259807 0.449999
1 0.34641 0.499999
1 0.346886 0.599844
1 0.433275 0.549657
1 0.433056 0.449943
1 0.519666 0.499933
1 0.519615 0.4
1 0.51985 0.599615
1 0.606265 0.549925
1 0.605711 0.648963
1 0.43302 0.34999
1 0.516347 0.295533
1 0.605673 0.349255
1 0.519615 0.7
1 0.692744 0.599815
1 0.693046 0.697317
1 0.692816 0.499957
1 0.779423 0.55
1 0.429872 0.248383
1 0.345888 0.299729
1 0.601277 0.24646
1 0.69282 0.3
1 0.34641 0.2
1 0.261395 0.252855
1 0.779423 0.45
1 0.695247 0.189019
1 0.778437 0.251226
1 0.173111 0.699837
1 0.170302 0.800591
1 0.260058 0.750084
1 0.256973 0.850508
1 0.347837 0.803272
1 0.440531 0.852496
1 0.435241 0.75386
1 0.526219 0.799211
1 0.619611 0.837042
1 0.347323 0.70086
1 0.779423 0.65
1 0.779423 0.75
1 0.0862817 0.250071
1 0.913397 0.35
1 0.913397 0.55
1 0.918454 0.7459
1 0.347102 0.100582
1 0.0866022 0.449999
1 0.749109 0.086753
1 0.346331 0.399943
1 0.259972 0.350421
1 0.550527 0.0842259
1 0.51002 0.183201
1 0.259808 0.65
1 0.606143 0.449845
1 0.779423 0.35
1 0.173232 0.400069
1 0.173448 0.300569
1 0.692716 0.399843
1 0.181698 0.184961
1 0.4339 0.649395
1 0.0821275 0.846932
1 0.846566 0.922179
1 0.906146 0.155907
1 0.149128 0.0832464
1 0.608241 0.74519
1 0.65 0.923358
1 0.699133 0.788695
1 0.8 0.161947
1 0.78842 0.839225
1 0.600721 0.159306
1 0.84641 0.4
1 0.84641 0.3
1 0.253047 0.934217
1 0.84641 0.5
1 0.84641 0.6
1 0.84641 0.7
1 0.269856 0.167404
1 0.45 0.934744
1 0.417313 0.163389
1 0.926795 0.0732051
1 0.0732051 0.0732051
1 0.0732051 0.926795
1 0.926795 0.926795
1 0.694643 0.8646
1 0.847442 0.775936
1 0.85028 0.22462
0.0866025 0 0.45
0.54684 0 0.0847783
0.913397 0 0.55
0.46391 0 0.905
0.913397 0 0.35
0.35 0 0.0866025
0.0866025 0 0.65
0.651276 0 0.91142
0.914388 0 0.752087
0.758673 0 0.0896296
0.0795923 0 0.254021
0.252042 0 0.911275
0.0954953 0 0.844556
0.150593 0 0.0829497
0.915323 0 0.150424
0.837326 0 0.912412
0.913563 0 0.650348
0.827245 0 0.599327
0.82687 0 0.499888
0.740702 0 0.549138
0.74029 0 0.449838
0.653691 0 0.499829
0.655897 0 0.599155
0.567389 0 0.549831
0.567071 0 0.449943
0.480466 0 0.499962
0.480404 0 0.399989
0.480385 0 0.6
0.393796 0 0.549994
0.393784 0 0.649999
0.566987 0 0.35
0.483657 0 0.295532
0.394331 0 0.349254
0.480385 0 0.7
0.307182 0 0.599999
0.30718 0 0.7
0.307182 0 0.499999
0.220577 0 0.55
0.570129 0 0.248384
0.654113 0 0.299731
0.398725 0 0.24646
0.30718 0 0.3
0.65359 0 0.2
0.738605 0 0.252856
0.220577 0 0.45
0.304754 0 0.189019
0.221563 0 0.251226
0.826815 0 0.399967
0.740035 0 0.350399
0.826507 0 0.300537
0.818249 0 0.184946
0.394819 0 0.748205
0.30354 0 0.814304
0.221499 0 0.748978
0.480385 0 0.8
0.56877 0 0.750058
0.562941 0 0.849863
0.655221 0 0.80499
0.741567 0 0.858126
0.744404 0 0.7564
0.655667 0 0.701036
0.829116 0 0.81139
0.307272 0 0.399875
0.220577 0 0.35
0.652898 0 0.100582
0.912246 0 0.247651
0.913413 0 0.449976
0.0866025 0 0.35
0.250891 0 0.0867529
0.35 0 0.913397
0.0815463 0 0.7459
0.449473 0 0.0842259
0.489981 0 0.183201
0.653645 0 0.399978
0.0866025 0 0.55
0.393908 0 0.449845
0.827258 0 0.700658
0.568082 0 0.650013
0.220577 0 0.65
0.742285 0 0.648337
0.0938543 0 0.155907
0.850866 0 0.0832447
0.153485 0 0.920108
0.917738 0 0.847093
0.2 0 0.161947
0.200166 0 0.838023
0.399279 0 0.159306
0.4 0 0.83923
0.551464 0 0.932602
0.15359 0 0.7
0.15359 0 0.6
0.15359 0 0.5
0.15359 0 0.4
0.15359 0 0.3
0.730144 0 0.167404
0.582688 0 0.163389
0.75 0 0.93813
0.0732051 0 0.926795
0.0732051 0 0.0732051
0.926795 0 0.0732051
0.926795 0 0.926795
0.151354 0 0.777021
0.14972 0 0.22462
0.0866025 1 0.45
0.54684 1 0.0847783
0.913397 1 0.55
0.46391 1 0.905
0.913397 1 0.35
0.35 1 0.0866025
0.0866025 1 0.65
0.651276 1 0.91142
0.914388 1 0.752087
0.758673 1 0.0896296
0.0795923 1 0.254021
0.252042 1 0.911275
0.0954953 1 0.844556
0.150593 1 0.0829497
0.915323 1 0.150424
0.837326 1 0.912412
0.913563 1 0.650348
0.827245 1 0.599327
0.82687 1 0.499888
0.740702 1 0.549138
0.74029 1 0.449838
0.653691 1 0.499829
0.655897 1 0.599155
0.567389 1 0.549831
0.567071 1 0.449943
0.480466 1 0.499962
0.480404 1 0.399989
0.480385 1 0.6
0.393796 1 0.549994
0.393784 1 0.649999
0.566987 1 0.35
0.483657 1 0.295532
0.394331 1 0.349254
0.480385 1 0.7
0.307182 1 0.599999
0.30718 1 0.7
0.307182 1 0.499999
0.220577 1 0.55
0.570129 1 0.248384
0.654113 1 0.299731
0.398725 1 0.24646
0.30718 1 0.3
0.65359 1 0.2
0.738605 1 0.252856
0.220577 1 0.45
0.304754 1 0.189019
0.221563 1 0.251226
0.826815 1 0.399967
0.740035 1 0.350399
0.826507 1 0.300537
0.818249 1 0.184946
0.394819 1 0.748205
0.30354 1 0.814304
0.221499 1 0.748978
0.480385 1 0.8
0.56877 1 0.750058
0.562941 1 0.849863
0.655221 1 0.80499
0.741567 1 0.858126
0.744404 1 0.7564
0.655667 1 0.701036
0.829116 1 0.81139
0.307272 1 0.399875
0.220577 1 0.35
0.652898 1 0.100582
0.912246 1 0.247651
0.913413 1 0.449976
0.0866025 1 0.35
0.250891 1 0.0867529
0.35 1 0.913397
0.0815463 1 0.7459
0.449473 1 0.0842259
0.489981 1 0.183201
0.653645 1 0.399978
0.0866025 1 0.55
0.393908 1 0.449845
0.827258 1 0.700658
0.568082 1 0.650013
0.220577 1 0.65
0.742285 1 0.648337
0.0938543 1 0.155907
0.850866 1 0.0832447
0.153485 1 0.920108
0.917738 1 0.847093
0.2 1 0.161947
0.200166 1 0.838023
0.399279 1 0.159306
0.4 1 0.83923
0.551464 1 0.932602
0.15359 1 0.7
0.15359 1 0.6
0.15359 1 0.5
0.15359 1 0.4
0.15359 1 0.3
0.730144 1 0.167404
0.582688 1 0.163389
0.75 1 0.93813
0.0732051 1 0.926795
0.0732051 1 0.0732051
0.926795 1 0.0732051
0.926795 1 0.926795
0.151354 1 0.777021
0.14972 1 0.22462
0.0866025 0.55 0
0.539426 0.0923679 0
0.913397 0.55 0
0.45316 0.915222 0
0.0866025 0.35 0
0.918093 0.34753 0
0.34908 0.0888543 0
0.65 0.913397 0
0.0866025 0.75 0
0.920408 0.745979 0
0.75 0.0866025 0
0.241327 0.91037 0
0.159183 0.0905697 0
0.915323 0.150424 0
0.849407 0.91705 0
0.0866025 0.65 0
0.173205 0.6 0
0.173205 0.5 0
0.259808 0.55 0
0.259808 0.45 0
0.34641 0.5 0
0.34641 0.4 0
0.433013 0.45 0
0.433013 0.55 0
0.519615 0.5 0
0.519615 0.6 0
0.519615 0.4 0
0.606218 0.45 0
0.605663 0.35096 0
0.433013 0.65 0
0.516346 0.704466 0
0.605673 0.650744 0
0.519615 0.3 0
0.692728 0.40016 0
0.69282 0.3 0
0.692805 0.500027 0
0.259808 0.65 0
0.259808 0.35 0
0.346782 0.299357 0
0.25987 0.249893 0
0.779423 0.45 0
0.429872 0.751616 0
0.601277 0.753539 0
0.69282 0.7 0
0.779423 0.55 0
0.695247 0.810981 0
0.778437 0.748774 0
0.347591 0.196714 0
0.256488 0.148836 0
0.44049 0.147502 0
0.169853 0.199034 0
0.435241 0.24614 0
0.526213 0.200788 0
0.619611 0.162958 0
0.779423 0.65 0
0.173205 0.7 0
0.261482 0.747099 0
0.181997 0.815185 0
0.0846547 0.850698 0
0.692727 0.600128 0
0.915927 0.247189 0
0.820596 0.185634 0
0.916065 0.44985 0
0.0866025 0.45 0
0.913397 0.65 0
0.347102 0.899418 0
0.550527 0.915774 0
[...]
POINT_DATA 1145
SCALARS scalar_potential float
LOOKUP_TABLE default
0
0
0
0
0
0
0
0
0
0
0
0
0
0
0
0
0
0
0
0
0
0
0
0
0
0
0
0
0
0
0
0
0
0
0
0
0
0
0
0
0
0
0
0
0
0
0
0
0
0
0
0
0
0
0
0
0
0
0
0
0
0
0
0
0
0
0
0
0
0
0
0
0
0
0
0
0
0
0
0
0
0
0
0
0
0
0
0
0
0
0
0
0
0
0
0
0
0
0
0
0
0
0
0
0
0
0
0
0
0
0
0
0
0
0
0
0
0
0
0
0
0
0
0
0
0
0
0
0
0
0
0
0
0
0
0
0
0
0
0
0
0
0
0
0
0
0
0
0
0
0
0
0
0
0
0
0
0
0
0
0
0
0
0
0
0
0
0
0
0
0
0
0
0
0
0
0
0
0
0
0
0
0
0
0
0
0
0
0
0
0
0
0
0
0
0
0
0
0
0
0
0
0
0
0
0
0
0
0
0
0
0
0
0
0
0
0
0
0
0
0
0
0
0
0
0
0
0
0
0
0
0
0
0
0
0
0
0
0
0
0
0
0
0
0
0
0
0
0
0
0
0
0
0
0
0
0
0
0
0
0
0
0
0
0
0
0
0
0
0
0
0
0
0
0
0
0
0
0
0
0
0
0
0
0
0
0
0
0
0
0
0
0
0
0
0
0
0
0
0
0
0
0
0
0
0
0
0
0
0
0
0
0
0
0
0
0
0
0
0
0
0
0
0
0
0
0
0
0
0
0
0
0
0
0
0
0
0
0
0
0
0
0
0
0
0
0
0
0
0
0
0
0
0
0
0
0
0
0
0
0
0
0
0
0
0
0
0
0
0
0
0
0
0
0
0
0
0
0
0
0
0
0
0
0
0
0
0
0
0
0
0
0
0
0
0
0
0
0
0
0
0
0
0
0
0
0
0
0
0
0
0
0
0
0
0
0
0
0
0
0
0
0
0
0
0
0
0
0
0
0
0
0
0
0
0
0
0
0
0
0
0
0
0
0
0
0
0
0
0
0
0
0
0
0
0
0
0
0
0
0
0
0
0
0
0
0
0
0
0
0
0
0
0
0
0
0
0
0
0
0
0
0
0
0
0
0
0
0
0
0
0
0
0
0
0
0
0
0
0
0
0
0
0
0
0
0
0
0
0
0
0
0
0
0
0
0
0
0
0
0
0
0
0
0
0
0
0
0
0
0
0
0
0
0
0
0
0
0
0
0
0
0
0
0
0
0
0
0
0
0
0
0
0
0
0
0
0
0
0
0
0
0
0
0
0
0
0
0
0
0
0
0
0
0
0
0
0
0
0
0
0
0
0
0
0
0
0
0
0
0
0
0
0
0
0
0
0
0
0
0
0
0
0
0
0
0
0
0
0
0
0
0
0
0
0
0
0
0
0
0
0
0
0
0
0
0
0
0
0
0
0
0
0
0
0
0
0
0
0
0
0
0
0
0
0
0
0
0
0
0
0
0
0
0
0
0
0
0
0
0
0
0
0
0
0
0
0
0
0
0
0
0
0
0
0
0
0
0
0
0
0
0
0
0
0
0
0
0
0
0
0
0
0
0
0
0
0
0
0
0
0
0
0
0
0
0
0
0
0
0
0
0
0
0
0
0
0
0
0
0
0
0
0
0
0
0
0
0
0
0
0
0
0
0
0
0
0
0
0
0
0
0
0
0
0
0
0
0
0
0
0
0
0
0
0
0
0
0
0
0
0
0
0
0
0
0
0
0
0
0
0
0
0
0
0
0
0
0
0
0
0
0
0
0
0
0
0
0
0
0
0
0
0
0
0
0
0
0
0
0
0
0
0
0
0
0
0
0
0
0
0
0
0
0
0
0
0
0
0
0
0
0
0
0
0
0
0
0
0
0
0
0
0
0
0
0
0
0
0
0
0
0
0
0
0
0
0
0
0
0
0
0
0
0
0
0
0
0
0
0
0
0
0
0
0
0
0
0
0
0
0
0
0
0
0
0
0
0
0
0
0
0
0
0
0
0
0
0
0
0
0
0
0
0
0
0
0
0
0
0
0
0
0
0
0
0
0
0
0
0
0
0
0
0
0
0
0
0
0
0
0
0
0
0
0
0
0
0
0
0
0
0
0
0
0
0
0
0
0
0
0
0
0
0
0
0
0
0
0
0
0
0
0
0
0
0
0
0
0
0
0
0
0
0
0
0
0
0
0
0
0
0
0
0
0
0
0
0
0
0
0
0
0
0
0
0
0
0
0
0
0
0
0
0
0
0
0
0
0
0
0
0
0
0
0
0
0
0
0
0
0
0
0
0
0
0
0
0
0
0
0
0
0
0
0
0
0
0
0
0
0
0
0
0
0
0
0
0
0
0
0
0
0
0
0
0
0
0
0
0
0
0
0
0
0
0
0
0
0
0
0
0
0
0
0
0
0
0
0
0
0
0
0
0
0
0
0
0
0
0
0
0
0
0
0
0
0
0
0
0
0
0
0
0
0
0
0
0
0
0
0
0
0
0
0
0
0
0
0
0
0
0
0
0
0
0
0
0
0
0
0
0
0
0
0
0
0
0
0
0
0
0
0
0
0
0
0
0
0
0
0
0
0
0

VECTORS current float
0 0 0
0 0 0
0 0 0
0 0 0
0 0 0
0 0 0
0 0 0
0 0 0
0 0 0
0 0 0
0 0 0
0 0 0
0 0 0
0 0 0
0 0 0
0 0 0
0 0 0
0 0 0
0 0 0
0 0 0
0 0 0
0 0 0
0 0 0
0 0 0
0 0 0
0 0 0
0 0 0
0 0 0
0 0 0
0 0 0
0 0 0
0 0 0
0 0 0
0 0 0
0 0 0
0 0 0
0 0 0
0 0 0
0 0 0
0 0 0
0 0 0
0 0 0
0 0 0
0 0 0
0 0 0
0 0 0
0 0 0
0 0 0
0 0 0
0 0 0
0 0 0
0 0 0
0 0 0
0 0 0
0 0 0
0 0 0
0 0 0
0 0 0
0 0 0
0 0 0
0 0 0
0 0 0
0 0 0
0 0 0
0 0 0
0 0 0
0 0 0
0 0 0
0 0 0
0 0 0
0 0 0
0 0 0
0 0 0
0 0 0
0 0 0
0 0 0
0 0 0
0 0 0
0 0 0
0 0 0
0 0 0
0 0 0
0 0 0
0 0 0
0 0 0
0 0 0
0 0 0
0 0 0
0 0 0
0 0 0
0 0 0
0 0 0
0 0 0
0 0 0
0 0 0
0 0 0
0 0 0
0 0 0
0 0 0
0 0 0
0 0 0
0 0 0
0 0 0
0 0 0
0 0 0
0 0 0
0 0 0
0 0 0
0 0 0
0 0 0
0 0 0
0 0 0
0 0 0
0 0 0
0 0 0
0 0 0
0 0 0
0 0 0
0 0 0
0 0 0
0 0 0
0 0 0
0 0 0
0 0 0
0 0 0
0 0 0
0 0 0
0 0 0
0 0 0
0 0 0
0 0 0
0 0 0
0 0 0
0 0 0
0 0 0
0 0 0
0 0 0
0 0 0
0 0 0
0 0 0
0 0 0
0 0 0
0 0 0
0 0 0
0 0 0
0 0 0
0 0 0
0 0 0
0 0 0
0 0 0
0 0 0
0 0 0
0 0 0
0 0 0
0 0 0
0 0 0
0 0 0
0 0 0
0 0 0
0 0 0
0 0 0
0 0 0
0 0 0
0 0 0
0 0 0
0 0 0
0 0 0
0 0 0
0 0 0
0 0 0
0 0 0
0 0 0
0 0 0
0 0 0
0 0 0
0 0 0
0 0 0
0 0 0
0 0 0
0 0 0
0 0 0
0 0 0
0 0 0
0 0 0
0 0 0
0 0 0
0 0 0
0 0 0
0 0 0
0 0 0
0 0 0
0 0 0
0 0 0
0 0 0
0 0 0
0 0 0
0 0 0
0 0 0
0 0 0
0 0 0
0 0 0
0 0 0
0 0 0
0 0 0
0 0 0
0 0 0
0 0 0
0 0 0
0 0 0
0 0 0
0 0 0
0 0 0
0 0 0
0 0 0
0 0 0
0 0 0
0 0 0
0 0 0
0 0 0
0 0 0
0 0 0
0 0 0
0 0 0
0 0 0
0 0 0
0 0 0
0 0 0
0 0 0
0 0 0
0 0 0
0 0 0
0 0 0
0 0 0
0 0 0
0 0 0
0 0 0
0 0 0
0 0 0
0 0 0
0 0 0
0 0 0
0 0 0
0 0 0
0 0 0
0 0 0
0 0 0
0 0 0
0 0 0
0 0 0
0 0 0
0 0 0
0 0 0
0 0 0
0 0 0
0 0 0
0 0 0
0 0 0
0 0 0
0 0 0
0 0 0
0 0 0
0 0 0
0 0 0
0 0 0
0 0 0
0 0 0
0 0 0
0 0 0
0 0 0
0 0 0
0 0 0
0 0 0
0 0 0
0 0 0
0 0 0
0 0 0
0 0 0
0 0 0
0 0 0
0 0 0
0 0 0
0 0 0
0 0 0
0 0 0
0 0 0
0 0 0
0 0 0
0 0 0
0 0 0
0 0 0
0 0 0
0 0 0
0 0 0
0 0 0
0 0 0
0 0 0
0 0 0
0 0 0
0 0 0
0 0 0
0 0 0
0 0 0
0 0 0
0 0 0
0 0 0
0 0 0
0 0 0
0 0 0
0 0 0
0 0 0
0 0 0
0 0 0
0 0 0
0 0 0
0 0 0
0 0 0
0 0 0
0 0 0
0 0 0
0 0 0
0 0 0
0 0 0
0 0 0
0 0 0
0 0 0
0 0 0
0 0 0
0 0 0
0 0 0
0 0 0
0 0 0
0 0 0
0 0 0
0 0 0
0 0 0
0 0 0
0 0 0
0 0 0
0 0 0
0 0 0
0 0 0
0 0 0
0 0 0
0 0 0
0 0 0
0 0 0
0 0 0
0 0 0
0 0 0
0 0 0
0 0 0
0 0 0
0 0 0
0 0 0
0 0 0
0 0 0
0 0 0
0 0 0
0 0 0
0 0 0
0 0 0
0 0 0
0 0 0
0 0 0
0 0 0
0 0 0
0 0 0
0 0 0
0 0 0
0 0 0
0 0 0
0 0 0
0 0 0
0 0 0
0 0 0
0 0 0
0 0 0
0 0 0
0 0 0
0 0 0
0 0 0
0 0 0
0 0 0
0 0 0
0 0 0
0 0 0
0 0 0
0 0 0
0 0 0
0 0 0
0 0 0
0 0 0
0 0 0
0 0 0
0 0 0
0 0 0
0 0 0
0 0 0
0 0 0
0 0 0
0 0 0
0 0 0
0 0 0
0 0 0
0 0 0
0 0 0
0 0 0
0 0 0
0 0 0
0 0 0
0 0 0
0 0 0
0 0 0
0 0 0
0 0 0
0 0 0
0 0 0
0 0 0
0 0 0
0 0 0
0 0 0
0 0 0
0 0 0
0 0 0
0 0 0
0 0 0
0 0 0
0 0 0
0 0 0
0 0 0
0 0 0
0 0 0
0 0 0
0 0 0
0 0 0
0 0 0
0 0 0
0 0 0
0 0 0
0 0 0
0 0 0
0 0 0
0 0 0
0 0 0
0 0 0
0 0 0
0 0 0
0 0 0
0 0 0
0 0 0
0 0 0
0 0 0
0 0 0
0 0 0
0 0 0
0 0 0
0 0 0
0 0 0
0 0 0
0 0 0
0 0 0
0 0 0
0 0 0
0 0 0
0 0 0
0 0 0
0 0 0
0 0 0
0 0 0
0 0 0
0 0 0
0 0 0
0 0 0
0 0 0
0 0 0
0 0 0
0 0 0
0 0 0
0 0 0
0 0 0
0 0 0
0 0 0
0 0 0
0 0 0
0 0 0
0 0 0
0 0 0
0 0 0
0 0 0
0 0 0
0 0 0
0 0 0
0 0 0
0 0 0
0 0 0
0 0 0
0 0 0
0 0 0
0 0 0
0 0 0
0 0 0
0 0 0
0 0 0
0 0 0
0 0 0
0 0 0
0 0 0
0 0 0
0 0 0
0 0 0
0 0 0
0 0 0
0 0 0
0 0 0
0 0 0
0 0 0
0 0 0
0 0 0
0 0 0
0 0 0
0 0 0
0 0 0
0 0 0
0 0 0
0 0 0
0 0 0
0 0 0
0 0 0
0 0 0
0 0 0
0 0 0
0 0 0
0 0 0
0 0 0
0 0 0
0 0 0
0 0 0
0 0 0
0 0 0
0 0 0
0 0 0
0 0 0
0 0 0
0 0 0
0 0 0
0 0 0
0 0 0
0 0 0
0 0 0
0 0 0
0 0 0
0 0 0
0.0484415 0.438355 2.15673
0.374765 0.0293776 2.85147
0.712196 0.0564633 2.61359
-0.265767 -0.453858 2.28469
-0.14971 0.575564 2.1774
-0.165263 0.0716218 1.62059
0 0 0
0 0 0
0 0 0
0 0 0
0 0 0
0 0 0
0 0 0
0 0 0
0 0 0
0 0 0
0 0 0
0 0 0
0 0 0
0 0 0
0 0 0
0 0 0
0 0 0
0 0 0
0 0 0
0 0 0
0 0 0
0 0 0
0 0 0
0 0 0
0 0 0
0 0 0
0 0 0
0 0 0
0 0 0
0 0 0
0 0 0
0 0 0
0 0 0
0 0 0
0 0 0
0 0 0
0 0 0
0 0 0
0 0 0
0 0 0
0 0 0
0 0 0
0 0 0
0 0 0
-0.188259 0.0346942 1.59599
0 0 0
0 0 0
0 0 0
0 0 0
0 0 0
0 0 0
0 0 0
0 0 0
0 0 0
0 0 0
0 0 0
0 0 0
0 0 0
0 0 0
0 0 0
0 0 0
0 0 0
0 0 0
0 0 0
0 0 0
0 0 0
0 0 0
0 0 0
0 0 0
0 0 0
0 0 0
0 0 0
0 0 0
0 0 0
0 0 0
0 0 0
0 0 0
0 0 0
0 0 0
0 0 0
0 0 0
0 0 0
0 0 0
0 0 0
0 0 0
0 0 0
0 0 0
0 0 0
0 0 0
0 0 0
0 0 0
0 0 0
0 0 0
0 0 0
0 0 0
0 0 0
0 0 0
0.108166 -0.116991 2.9448
0.108966 0.110814 2.01391
0.200662 0.136392 2.55739
0.055769 -0.516243 1.41795
0.10141 0.0973691 2.16224
-0.451633 0.0380616 1.29137
0 0 0
0 0 0
0 0 0
0 0 0
0 0 0
0 0 0
0 0 0
0 0 0
0 0 0
0 0 0
0 0 0
0 0 0
0 0 0
0 0 0
0 0 0
0 0 0
0 0 0
0 0 0
0 0 0
0 0 0
0 0 0
0 0 0
0 0 0
0 0 0
0 0 0
0 0 0
0 0 0
0 0 0
0 0 0
0 0 0
0 0 0
0 0 0
0 0 0
0 0 0
0 0 0
0 0 0
-0.334716 -0.273033 0.751829
0 0 0
0 0 0
0 0 0
0 0 0
0 0 0
0 0 0
0 0 0
0 0 0
0 0 0
0 0 0
0 0 0
0 0 0
0 0 0
0 0 0
0 0 0
0 0 0
0 0 0
0 0 0
0 0 0
0 0 0
0 0 0
0 0 0
0 0 0
0 0 0
0 0 0
0 0 0
0 0 0
0 0 0
0 0 0
0 0 0
0 0 0
0 0 0
0 0 0
0 0 0
0 0 0
0 0 0
0 0 0
0 0 0
0 0 0
0.0228224 0.0399989 4.28476
0 0 0
0 0 0
0 0 0
0 0 0
0 0 0
0 0 0
0 0 0
0 0 0
0 0 0
-0.374966 -0.106542 5.72903
0 0 0
0 0 0
-0.576997 0.075655 6.54429
0 0 0
0 0 0
0 0 0
0 0 0
0 0 0
0 0 0
0 0 0
0 0 0
0 0 0
0 0 0
0 0 0
0 0 0
0 0 0
0 0 0
0 0 0
0 0 0
0 0 0
0 0 0
0 0 0
0 0 0
0.0540133 0.380993 3.32212
0 0 0
0 0 0
0 0 0
-0.118611 0.37835 3.00393
0 0 0
0 0 0
0 0 0
0 0 0
0 0 0
0 0 0
-0.442337 -0.397742 3.85304
0 0 0
0 0 0
0 0 0
-0.141991 0.043927 4.36281
0 0 0
0 0 0
0 0 0
-0.432076 0.424477 4.03793
0.137142 -0.140429 1.82248
0 0 0
0 0 0
0 0 0
0 0 0
0 0 0
0.268147 0.114585 3.32735
0 0 0
0.389325 0.412697 1.50097
0 0 0
-0.25721 -0.0176427 3.83605
0 0 0
0 0 0
0 0 0
0 0 0
0.306501 -0.0436004 2.32582
-0.394816 0.0111964 3.99715
0 0 0
0 0 0
0 0 0
0 0 0
0.384982 0.375313 0.9293
0 0 0
0 0 0
0 0 0
0 0 0
0 0 0
0 0 0
0.114218 0.450535 1.03545
0 0 0
0 0 0
0 0 0
0 0 0
0 0 0
0 0 0
0 0 0
0 0 0
0 0 0
0 0 0
0 0 0
0 0 0
0 0 0
0 0 0
0 0 0
0 0 0
0 0 0
0 0 0
0 0 0
0 0 0
0 0 0
0 0 0
0 0 0
-0.284178 -0.484685 2.16079
0 0 0
0 0 0
0 0 0
0 0 0
0.539176 0.20552 3.13553
0 0 0
0 0 0
0 0 0
0 0 0
0 0 0
0 0 0
0 0 0
0 0 0
0 0 0
-0.0362707 0.230862 0.789921
0 0 0
0 0 0
0 0 0
0 0 0
0 0 0
-0.0747425 0.647122 0.752286
0 0 0
0 0 0
0 0 0
0.0788383 0.633934 2.71113
0 0 0
0 0 0
0 0 0
0 0 0
0 0 0
0 0 0
-0.63918 0.487878 5.8431
0 0 0
0 0 0
0 0 0
0 0 0
0 0 0
0 0 0
0 0 0
0 0 0
0 0 0
0 0 0
0 0 0
0 0 0
0 0 0
0 0 0
0 0 0
0 0 0
0 0 0
0 0 0
0 0 0
0 0 0
0 0 0
0.327789 0.00933901 2.32016
0 0 0
0 0 0
0.335207 -0.113443 6.48263
0 0 0
0 0 0
0 0 0
0 0 0
0 0 0
0 0 0
0 0 0
0.423638 0.0649857 2.41553
0.669816 -0.0475577 3.07032
-0.542028 0.00314379 0.791459
0 0 0
0 0 0
0.121314 -0.245145 2.54891
0 0 0
0 0 0
0.081223 0.0226119 5.07569
-0.474972 0.147164 3.76414
0 0 0
0 0 0
0 0 0
0.186765 -0.750403 2.79052
0 0 0
0 0 0
0 0 0
0 0 0
0 0 0
0 0 0
0 0 0
0 0 0
0 0 0
0 0 0
0 0 0
0 0 0
0 0 0
0 0 0
0 0 0
0 0 0
0.472833 0.153538 5.24094
0 0 0
0 0 0
0 0 0
0 0 0
0 0 0
0 0 0
0 0 0
0 0 0
0 0 0
0 0 0
0 0 0
0 0 0
0 0 0
0 0 0
0 0 0
0 0 0
0 0 0
0 0 0
0 0 0
0 0 0
0 0 0
0 0 0
0 0 0
0 0 0
0 0 0
0 0 0
0 0 0
0 0 0
0.0547571 0.538651 0.53657
0 0 0
0 0 0
0 0 0
0 0 0
0.462749 -0.0164491 3.52351
0 0 0
0 0 0
0 0 0
0 0 0
0 0 0
-0.102308 0.296571 4.32322
0 0 0
-0.0616516 0.34718 3.76995
0 0 0
0 0 0
0 0 0
0 0 0
0 0 0
0 0 0
0 0 0
0 0 0
0 0 0
0 0 0
0 0 0
0 0 0
0 0 0
0 0 0
0 0 0
0.188257 0.645099 4.34686
0 0 0
0 0 0
0 0 0
0 0 0
0.546502 -0.00224986 3.52648
0 0 0
0 0 0
0 0 0
0 0 0
0 0 0
0 0 0
0 0 0
0 0 0
-0.489219 0.299136 1.1359
0 0 0
0.428595 0.231044 3.77059
0 0 0
0 0 0
-0.184642 0.290869 2.27853
0 0 0
0 0 0
0 0 0
0 0 0
0 0 0
0 0 0
0 0 0
0 0 0
0 0 0
0 0 0
0 0 0
-0.291071 -0.0435728 4.07129
0 0 0
-0.0950218 -0.292598 1.60861
0 0 0
0 0 0
0 0 0
0 0 0
0 0 0
0 0 0
0 0 0
0 0 0
0 0 0
0 0 0
0 0 0
0.284498 -0.151478 3.05495
0 0 0
0 0 0
0 0 0
0 0 0
0 0 0
0 0 0
0 0 0
0 0 0
0 0 0
0 0 0
0 0 0
0 0 0
0 0 0
0 0 0
0 0 0
0.646458 -0.162334 4.18826
0 0 0
0.106845 0.230642 3.78199
0 0 0
0.244569 -0.166204 3.71063
0 0 0
0 0 0
0 0 0
0 0 0
0 0 0
0 0 0
0 0 0
0 0 0
0 0 0
0 0 0
0.592898 0.0717199 4.07745
0 0 0
0.00798674 0.615252 3.87034
0 0 0
0 0 0
0 0 0
0 0 0
-0.0861988 -0.40924 2.95245
0.0674503 0.1226 3.36938
0.329819 0.0401656 2.74449
0 0 0
0 0 0
0 0 0
0 0 0
0 0 0
0 0 0
0 0 0
0 0 0
0 0 0
0 0 0
0 0 0
0 0 0
0 0 0
0 0 0
0 0 0
0 0 0
0 0 0
0 0 0
0 0 0
0 0 0
0 0 0
0 0 0
0 0 0
0 0 0
0 0 0
0 0 0
0 0 0
0 0 0
0 0 0
0 0 0
0 0 0
0 0 0
-0.526016 0.0806874 0.733819
0 0 0
0 0 0
0 0 0
0.238204 -0.230875 2.56489
0 0 0
0 0 0
0 0 0
0 0 0
0 0 0
0 0 0
0 0 0
0 0 0
0 0 0
0 0 0
0 0 0
0.0957295 -0.297602 3.52686
0 0 0
0 0 0
0 0 0
0 0 0
0 0 0
0 0 0
-0.0909995 -0.140572 4.06696
0 0 0
0 0 0
0 0 0
0 0 0
0 0 0
0 0 0
0 0 0

VECTORS Vector_potential float
0 0 0
0 0 0
0 0 0
0 0 0
0 0 0
0 0 0
0 0 0
0 0 0
0 0 0
0 0 0
0 0 0
0 0 0
0 0 0
0 0 0
0 0 0
0 0 0
0 0 0
0 0 0
0 0 0
-0.000118398 6.81953e-06 0.00012579
0 0 0
0 0 0
-0.000155698 -3.72292e-07 0.000146776
0 0 0
0 0 0
0 0 0
0 0 0
0 0 0
0 0 0
0 0 0
0 0 0
-3.72287e-05 3.72287e-05 0
0 0 0
0 0 0
0 0 0
0 0 0
0 0 0
0.000100889 -1.91487e-05 9.98898e-05
0.000134705 -1.63759e-19 0.000137357
0 0 0
0 0 0
0 0 0
0 0 0
0 0 0
0 0 0
0 0 0
0 0 0
0 0 0
0 0 0
0 0 0
0 0 0
0 0 0
0 0 0
0 0 0
0 0 0
0 0 0
0.000135974 -7.29635e-06 0.00014476
0 0 0
0 0 0
0 0 0
0 0 0
0 0 0
0 0 0
0 0 0
0 0 0
-3.24758e-05 -3.24758e-05 -4.51964e-06
0 0 0
0 0 0
0 0 0
0 0 0
0 0 0
0 0 0
0 0 0
-0.000114645 -1.23186e-05 0.000126803
0 0 0
0 0 0
0 0 0
0 0 0
0 0 0
0 0 0
0 0 0
0 0 0
0 0 0
0 0 0
0 0 0
1.99159e-07 0.000123045 0.00014217
0 0 0
0 0 0
0 0 0
0 0 0
-1.84089e-05 -9.57748e-05 9.75935e-05
0 0 0
0 0 0
0 0 0
0 0 0
0 0 0
0 0 0
0 0 0
0 0 0
0 0 0
0 0 0
0 0 0
0 0 0
0 0 0
0 0 0
0 0 0
0 0 0
0 0 0
0 0 0
0 0 0
0 0 0
0 0 0
-1.03025e-05 0.000152674 0.000153339
0 0 0
0 0 0
0 0 0
0.000421582 4.75779e-05 5.66002e-05
1.448e-05 -1.90526e-06 -3.06929e-05
-0.000413245 3.92724e-05 0.000105066
9.03953e-05 -4.45005e-05 -7.85255e-05
0.000214808 7.94415e-05 -2.85596e-05
-0.000373827 -0.000124505 0.000106952
0.000531491 -0.000136963 0.000170739
-0.00017949 0.000118971 -9.81425e-05
-0.000124343 -2.59318e-05 -9.17045e-07
-0.000243187 -1.80932e-05 0.000100075
0.00017293 7.52179e-05 2.79949e-05
0.000160776 -3.91538e-05 -2.20443e-05
0.000238482 7.61986e-05 7.03811e-05
0.000264395 -9.86201e-05 0.000120139
-0.00026408 -0.000173073 9.30155e-05
-0.000192778 8.51943e-05 4.02266e-05
-0.000161603 -8.78873e-05 -6.40515e-05
-7.73876e-05 -7.44507e-06 -3.16529e-05
6.78854e-05 9.14331e-06 -2.83078e-05
-4.95587e-05 -3.92522e-05 -3.86612e-05
0.000156505 2.55763e-05 -3.59115e-05
0.00010849 -3.39127e-05 3.55415e-05
-0.000141199 -8.16685e-06 1.09709e-05
-7.33273e-05 -2.99423e-05 1.01932e-06
0.000129955 -5.63914e-06 7.96902e-05
2.77671e-05 -3.86693e-05 2.52374e-05
0.000258955 -7.38651e-05 4.67234e-05
-0.000250049 -1.65561e-05 3.8009e-05
-0.000115704 6.96179e-06 3.25802e-05
-0.00042526 3.18623e-05 -3.12137e-05
0.000553389 7.67689e-05 0.000188612
0.000657893 -0.000134648 0.000282468
0.000310625 2.51642e-05 -8.16998e-05
-0.000346115 -5.19787e-05 -2.09732e-05
-0.000249511 6.54806e-05 2.17464e-05
-0.000352012 8.60961e-05 -4.76921e-05
4.15775e-05 -1.58446e-05 -3.28299e-05
-9.96057e-05 -4.14514e-05 -8.17701e-05
0.000268856 1.17228e-05 -1.12393e-05
0.000597166 0.000185438 0.00026997
0.000444353 6.13251e-06 7.06599e-05
0.00044243 -7.68925e-05 4.36842e-05
0.000606306 0.000133444 0.000112977
0.00038367 6.81036e-05 3.26269e-05
8.22841e-05 -3.36126e-05 -2.10326e-05
0.00055236 -0.000165029 5.58273e-05
0.000502121 -0.000231302 3.08639e-05
-0.000137997 1.81693e-05 6.26677e-06
-0.000329363 -0.000117372 4.47363e-05
-0.000223219 -3.3284e-05 5.35462e-05
-0.000391646 -4.77035e-05 6.0216e-05
-0.000394174 -2.7866e-05 0.000114016
-0.000540699 3.03686e-05 0.000123984
-0.000402515 -3.80374e-05 8.29885e-05
-0.000644778 9.73295e-05 0.000166938
-0.000660692 1.11516e-05 0.00010017
-0.000490164 -9.4856e-05 0.000132805
-0.000335185 5.65244e-05 -2.41212e-05
-0.000202399 -2.46637e-06 -7.63559e-05
0.000161911 3.21555e-05 1.41492e-05
0.000203974 -7.02497e-05 -7.02404e-05
-4.39604e-05 -1.33553e-06 -4.60057e-05
-0.000143711 3.43534e-05 -2.81195e-05
0.000263864 5.76545e-05 -1.46946e-05
5.54193e-05 -1.60707e-06 -8.15942e-06
0.000204884 -3.26835e-05 5.22267e-05
0.000210425 1.42827e-05 1.97431e-05
0.000346924 9.66181e-05 3.19043e-05
0.000330792 -7.22111e-05 3.89381e-05
0.000589449 -2.87573e-05 0.000177523
-0.000195262 -1.69942e-05 -2.56897e-05
0.000141173 -6.01006e-05 -8.23746e-06
0.000339901 -0.000179291 3.68588e-05
0.000221126 0.0001116 2.99252e-05
0.000422738 0.000233203 -5.00635e-05
0.000182902 -2.4326e-05 -1.31864e-05
0.00037099 0.000169528 4.07644e-06
-0.000320564 -5.6421e-05 8.80932e-05
-0.000133793 -3.06863e-05 2.96724e-05
-0.00012581 4.37743e-07 5.76395e-05
0.000253157 -4.95233e-05 4.79775e-05
0.000220306 0.000108616 6.97231e-05
-0.000278423 1.27384e-05 2.04768e-05
-0.000318447 3.10381e-05 7.72014e-05
-0.000663189 0.000218834 7.05907e-05
0.000261808 -3.61952e-05 -5.64294e-05
-0.000249885 3.89911e-05 -7.32544e-05
0.000744575 -1.99083e-05 0.000264502
0.000160733 -6.60197e-05 -2.00654e-05
0.000179249 3.27697e-05 -3.42225e-06
-0.000214887 -8.5213e-05 7.4002e-05
-2.23326e-05 -1.91615e-05 -4.0365e-05
-0.000220452 2.99784e-05 -8.86675e-05
-0.000227762 3.2903e-05 -4.26775e-05
0.000298586 -9.53322e-06 2.54835e-05
-0.000342445 -2.85974e-05 0.000160486
0.000650635 5.19299e-05 0.000108134
0.000143451 -6.24837e-05 6.33076e-05
0.000152872 6.14992e-05 5.75776e-05
-9.19482e-05 -1.28263e-05 1.84982e-05
-9.92933e-05 8.40313e-05 5.54993e-05
-0.000598169 0.000186494 1.69707e-05
-0.000255916 4.35739e-06 4.527e-05
0.000254251 -4.29455e-05 -0.000107108
-0.00055174 4.56525e-05 0.000451739
4.11932e-05 -1.0078e-05 -1.24419e-05
0.000363317 6.20418e-05 9.08174e-05
-2.93563e-05 -9.37249e-06 -4.10343e-05
-9.05339e-05 2.13993e-05 -4.12883e-06
0.000301599 -4.41026e-05 8.70979e-05
-0.000539897 -0.000187792 0.000234265
0.000225792 7.70048e-05 -5.82443e-05
0.000150441 -3.30952e-05 -2.96371e-06
0.00021429 -5.46419e-06 8.65029e-05
-0.000240145 7.81084e-05 8.76409e-05
-0.000125679 -4.81138e-05 -2.93656e-06
-0.00018693 0.000132793 8.37488e-05
-0.000236986 -0.000120726 8.25285e-05
0.00028282 -8.58632e-05 0.00016412
0.000259849 4.8569e-05 6.29924e-05
0.000189436 -6.24602e-05 -5.32655e-05
0.000193665 -5.58131e-05 -1.74583e-05
1.40716e-05 -3.09559e-07 -2.77318e-05
0.00013919 -1.93017e-05 -1.09547e-05
-5.48968e-05 1.03102e-05 -1.24986e-05
2.79726e-05 3.06342e-06 -9.87347e-07
0.000277192 1.12034e-05 4.09978e-05
0.000194077 4.88261e-07 6.1881e-05
-5.17401e-05 4.18487e-06 1.2811e-06
3.12129e-05 -1.69524e-05 3.69097e-05
-0.000298011 2.94658e-05 -6.99476e-06
0.000307351 -6.92941e-05 0.000117614
0.000177361 -1.26923e-05 2.65489e-05
0.000496582 6.03689e-05 -4.05972e-05
-0.000421942 6.34523e-05 7.00573e-05
-0.000499327 -4.99315e-05 -5.63665e-05
-0.000482324 -5.77104e-05 -3.50652e-05
0.000520538 7.04074e-05 2.82226e-05
0.000324457 3.69518e-05 -2.9403e-05
0.00035319 2.31995e-05 -9.8092e-05
2.25142e-05 2.97605e-06 -1.3106e-05
5.14436e-05 2.83694e-05 -2.14862e-05
-0.000407432 3.46623e-06 -2.35845e-05
-0.000363393 1.79844e-05 -5.14048e-05
-0.000320219 5.08421e-06 3.49709e-05
-0.000394221 -0.00011061 -8.63106e-05
-0.000647386 0.000271187 6.66184e-05
-0.000378775 9.28993e-05 3.69014e-05
-3.39947e-05 -2.35316e-05 -1.48359e-06
-0.000611668 -0.000215141 5.54555e-05
-0.00017767 -2.29833e-05 -4.98967e-05
0.000364881 -0.000151172 5.7994e-05
0.000357129 -5.19941e-05 -4.99767e-05
0.000374684 -3.96089e-06 -2.70484e-06
0.000240881 3.52495e-05 4.31791e-05
0.000715947 -9.52815e-05 7.65012e-05
0.000594264 -9.51318e-05 0.000111176
0.000389035 -8.46784e-05 0.000169267
0.000686541 -2.62418e-06 0.000169022
0.000722057 4.66208e-05 6.05295e-05
0.000529994 -6.41671e-05 0.000106921
0.000312083 7.24314e-05 -1.29306e-06
0.000545909 0.000222919 -2.87226e-05
-0.000175275 9.976e-05 4.4685e-05
-0.00011507 -2.77388e-05 -5.30373e-05
6.05295e-05 -2.18744e-06 -7.2898e-06
0.000155794 5.99826e-05 -1.68353e-05
-0.000448341 4.19733e-05 0.000133606
-4.89752e-05 6.63264e-06 -8.66853e-05
-0.000207641 1.319e-06 4.73843e-05
-0.000291551 6.42664e-05 -3.44868e-06
-0.000237868 1.43894e-05 4.46243e-06
-0.00033297 -7.66134e-05 0.000106454
-0.000592629 1.8682e-05 5.09182e-05
0.000277958 -1.86601e-05 -2.17215e-05
-0.000128493 5.09021e-06 1.98668e-05
-0.000268541 -8.20582e-05 -6.49601e-05
-0.000196495 9.38845e-05 -4.7551e-05
-0.000290635 0.000112088 -6.83447e-06
-0.000255121 -4.85551e-05 -1.86419e-05
-0.000353654 0.000238191 1.77994e-05
0.000414038 -1.76131e-05 -2.03228e-05
0.00023101 -7.43343e-05 5.65548e-05
0.000287264 0.000124469 0.000113346
-0.000188395 -5.25716e-05 3.85585e-05
-0.000119258 -1.15493e-05 5.01781e-05
0.000461447 2.8453e-05 3.42909e-05
0.000535851 0.000158781 0.000308669
0.000317737 9.01534e-05 1.55174e-05
-0.000363079 -9.99369e-05 2.62683e-05
0.000284604 -1.31509e-05 -4.59218e-05
-0.000737997 -6.86981e-05 0.000130772
-0.000112781 -3.36695e-05 -1.55393e-05
-0.000256052 -7.68377e-05 -7.54818e-05
0.000204156 4.6825e-05 0.000180645
-1.70313e-05 -1.83782e-05 -7.20737e-06
0.000183431 4.10294e-05 -2.29192e-05
0.000330594 0.000120304 5.97555e-06
-0.000337905 0.000106768 3.37734e-05
0.000475198 -5.82022e-05 0.000158434
-0.000567103 7.71527e-05 8.99491e-05
-0.000120755 -4.33909e-05 5.01524e-05
-0.000125392 5.44883e-05 5.03014e-05
0.000132002 -5.32531e-05 6.85639e-05
0.000150114 4.14578e-05 6.84056e-05
0.000634244 0.000138622 0.000212494
0.000194457 -5.55693e-05 -2.90575e-05
-0.000289404 -0.00010479 -1.47226e-05
1.80376e-05 4.36396e-05 -1.53842e-06
-1.32669e-05 0.000451137 0.000102696
4.00297e-05 -3.02837e-05 -2.21021e-05
-5.12235e-05 -0.000339593 4.99132e-05
-1.28628e-05 9.91322e-05 -6.0662e-06
-3.18419e-05 0.000414651 0.000146853
-6.48842e-05 -0.000140952 -5.06708e-05
-4.50238e-05 -0.000364317 0.000120498
3.60993e-05 -0.000147583 -3.69609e-06
-1.56703e-05 0.000215391 1.97943e-05
6.08961e-05 0.000163534 1.71221e-05
1.25162e-05 -0.000137937 -5.54827e-06